
768 atoms
2 atom types
   0.0000000000   21.0697479248 xlo xhi
   0.0000000000   20.1894245148 ylo yhi
   0.0000000000   20.3128509521 zlo zhi
   0.0000000000    0.0000000000    0.0000000000 xy xz yz

Atoms # atomic

     1      1    0.3477929562    2.6913788339    2.5391063690
     2      1    0.3477929562    2.6913788339    7.6173191070
     3      1    0.3477929562    2.6913788339   12.6955318451
     4      1    0.3477929562    2.6913788339   17.7737445831
     5      1    0.3477929562    7.7387352049    2.5391063690
     6      1    0.3477929562    7.7387352049    7.6173191070
     7      1    0.3477929562    7.7387352049   12.6955318451
     8      1    0.3477929562    7.7387352049   17.7737445831
     9      1    0.3477929562   12.7860917979    2.5391063690
    10      1    0.3477929562   12.7860917979    7.6173191070
    11      1    0.3477929562   12.7860917979   12.6955318451
    12      1    0.3477929562   12.7860917979   17.7737445831
    13      1    0.3477929562   17.8334484112    2.5391063690
    14      1    0.3477929562   17.8334484112    7.6173191070
    15      1    0.3477929562   17.8334484112   12.6955318451
    16      1    0.3477929562   17.8334484112   17.7737445831
    17      1    5.6152296003    2.6913788339    2.5391063690
    18      1    5.6152296003    2.6913788339    7.6173191070
    19      1    5.6152296003    2.6913788339   12.6955318451
    20      1    5.6152296003    2.6913788339   17.7737445831
    21      1    5.6152296003    7.7387352049    2.5391063690
    22      1    5.6152296003    7.7387352049    7.6173191070
    23      1    5.6152296003    7.7387352049   12.6955318451
    24      1    5.6152296003    7.7387352049   17.7737445831
    25      1    5.6152296003   12.7860917979    2.5391063690
    26      1    5.6152296003   12.7860917979    7.6173191070
    27      1    5.6152296003   12.7860917979   12.6955318451
    28      1    5.6152296003   12.7860917979   17.7737445831
    29      1    5.6152296003   17.8334484112    2.5391063690
    30      1    5.6152296003   17.8334484112    7.6173191070
    31      1    5.6152296003   17.8334484112   12.6955318451
    32      1    5.6152296003   17.8334484112   17.7737445831
    33      1   10.8826665815    2.6913788339    2.5391063690
    34      1   10.8826665815    2.6913788339    7.6173191070
    35      1   10.8826665815    2.6913788339   12.6955318451
    36      1   10.8826665815    2.6913788339   17.7737445831
    37      1   10.8826665815    7.7387352049    2.5391063690
    38      1   10.8826665815    7.7387352049    7.6173191070
    39      1   10.8826665815    7.7387352049   12.6955318451
    40      1   10.8826665815    7.7387352049   17.7737445831
    41      1   10.8826665815   12.7860917979    2.5391063690
    42      1   10.8826665815   12.7860917979    7.6173191070
    43      1   10.8826665815   12.7860917979   12.6955318451
    44      1   10.8826665815   12.7860917979   17.7737445831
    45      1   10.8826665815   17.8334484112    2.5391063690
    46      1   10.8826665815   17.8334484112    7.6173191070
    47      1   10.8826665815   17.8334484112   12.6955318451
    48      1   10.8826665815   17.8334484112   17.7737445831
    49      1   16.1501045319    2.6913788339    2.5391063690
    50      1   16.1501045319    2.6913788339    7.6173191070
    51      1   16.1501045319    2.6913788339   12.6955318451
    52      1   16.1501045319    2.6913788339   17.7737445831
    53      1   16.1501045319    7.7387352049    2.5391063690
    54      1   16.1501045319    7.7387352049    7.6173191070
    55      1   16.1501045319    7.7387352049   12.6955318451
    56      1   16.1501045319    7.7387352049   17.7737445831
    57      1   16.1501045319   12.7860917979    2.5391063690
    58      1   16.1501045319   12.7860917979    7.6173191070
    59      1   16.1501045319   12.7860917979   12.6955318451
    60      1   16.1501045319   12.7860917979   17.7737445831
    61      1   16.1501045319   17.8334484112    2.5391063690
    62      1   16.1501045319   17.8334484112    7.6173191070
    63      1   16.1501045319   17.8334484112   12.6955318451
    64      1   16.1501045319   17.8334484112   17.7737445831
    65      1    2.9815115943    5.0473556442    2.5391063690
    66      1    2.9815115943    5.0473556442    7.6173191070
    67      1    2.9815115943    5.0473556442   12.6955318451
    68      1    2.9815115943    5.0473556442   17.7737445831
    69      1    2.9815115943   10.0947122574    2.5391063690
    70      1    2.9815115943   10.0947122574    7.6173191070
    71      1    2.9815115943   10.0947122574   12.6955318451
    72      1    2.9815115943   10.0947122574   17.7737445831
    73      1    2.9815115943   15.1420688706    2.5391063690
    74      1    2.9815115943   15.1420688706    7.6173191070
    75      1    2.9815115943   15.1420688706   12.6955318451
    76      1    2.9815115943   15.1420688706   17.7737445831
    77      1    2.9815115943    0.0000000000    2.5391063690
    78      1    2.9815115943    0.0000000000    7.6173191070
    79      1    2.9815115943    0.0000000000   12.6955318451
    80      1    2.9815115943    0.0000000000   17.7737445831
    81      1    8.2489480909    5.0473556442    2.5391063690
    82      1    8.2489480909    5.0473556442    7.6173191070
    83      1    8.2489480909    5.0473556442   12.6955318451
    84      1    8.2489480909    5.0473556442   17.7737445831
    85      1    8.2489480909   10.0947122574    2.5391063690
    86      1    8.2489480909   10.0947122574    7.6173191070
    87      1    8.2489480909   10.0947122574   12.6955318451
    88      1    8.2489480909   10.0947122574   17.7737445831
    89      1    8.2489480909   15.1420688706    2.5391063690
    90      1    8.2489480909   15.1420688706    7.6173191070
    91      1    8.2489480909   15.1420688706   12.6955318451
    92      1    8.2489480909   15.1420688706   17.7737445831
    93      1    8.2489480909    0.0000000000    2.5391063690
    94      1    8.2489480909    0.0000000000    7.6173191070
    95      1    8.2489480909    0.0000000000   12.6955318451
    96      1    8.2489480909    0.0000000000   17.7737445831
    97      1   13.5163850721    5.0473556442    2.5391063690
    98      1   13.5163850721    5.0473556442    7.6173191070
    99      1   13.5163850721    5.0473556442   12.6955318451
   100      1   13.5163850721    5.0473556442   17.7737445831
   101      1   13.5163850721   10.0947122574    2.5391063690
   102      1   13.5163850721   10.0947122574    7.6173191070
   103      1   13.5163850721   10.0947122574   12.6955318451
   104      1   13.5163850721   10.0947122574   17.7737445831
   105      1   13.5163850721   15.1420688706    2.5391063690
   106      1   13.5163850721   15.1420688706    7.6173191070
   107      1   13.5163850721   15.1420688706   12.6955318451
   108      1   13.5163850721   15.1420688706   17.7737445831
   109      1   13.5163850721    0.0000000000    2.5391063690
   110      1   13.5163850721    0.0000000000    7.6173191070
   111      1   13.5163850721    0.0000000000   12.6955318451
   112      1   13.5163850721    0.0000000000   17.7737445831
   113      1   18.7838230225    5.0473556442    2.5391063690
   114      1   18.7838230225    5.0473556442    7.6173191070
   115      1   18.7838230225    5.0473556442   12.6955318451
   116      1   18.7838230225    5.0473556442   17.7737445831
   117      1   18.7838230225   10.0947122574    2.5391063690
   118      1   18.7838230225   10.0947122574    7.6173191070
   119      1   18.7838230225   10.0947122574   12.6955318451
   120      1   18.7838230225   10.0947122574   17.7737445831
   121      1   18.7838230225   15.1420688706    2.5391063690
   122      1   18.7838230225   15.1420688706    7.6173191070
   123      1   18.7838230225   15.1420688706   12.6955318451
   124      1   18.7838230225   15.1420688706   17.7737445831
   125      1   18.7838230225    0.0000000000    2.5391063690
   126      1   18.7838230225    0.0000000000    7.6173191070
   127      1   18.7838230225    0.0000000000   12.6955318451
   128      1   18.7838230225    0.0000000000   17.7737445831
   129      1    0.0000000000    5.0473561287    0.0000000000
   130      1    0.0000000000    5.0473561287    5.0782127380
   131      1    0.0000000000    5.0473561287   10.1564254760
   132      1    0.0000000000    5.0473561287   15.2346382141
   133      1    0.0000000000   10.0947122574    0.0000000000
   134      1    0.0000000000   10.0947122574    5.0782127380
   135      1    0.0000000000   10.0947122574   10.1564254760
   136      1    0.0000000000   10.0947122574   15.2346382141
   137      1    0.0000000000   15.1420688706    0.0000000000
   138      1    0.0000000000   15.1420688706    5.0782127380
   139      1    0.0000000000   15.1420688706   10.1564254760
   140      1    0.0000000000   15.1420688706   15.2346382141
   141      1    0.0000000000    0.0000000000    0.0000000000
   142      1    0.0000000000    0.0000000000    5.0782127380
   143      1    0.0000000000    0.0000000000   10.1564254760
   144      1    0.0000000000    0.0000000000   15.2346382141
   145      1    5.2674369812    5.0473561287    0.0000000000
   146      1    5.2674369812    5.0473561287    5.0782127380
   147      1    5.2674369812    5.0473561287   10.1564254760
   148      1    5.2674369812    5.0473561287   15.2346382141
   149      1    5.2674369812   10.0947122574    0.0000000000
   150      1    5.2674369812   10.0947122574    5.0782127380
   151      1    5.2674369812   10.0947122574   10.1564254760
   152      1    5.2674369812   10.0947122574   15.2346382141
   153      1    5.2674369812   15.1420688706    0.0000000000
   154      1    5.2674369812   15.1420688706    5.0782127380
   155      1    5.2674369812   15.1420688706   10.1564254760
   156      1    5.2674369812   15.1420688706   15.2346382141
   157      1    5.2674369812    0.0000000000    0.0000000000
   158      1    5.2674369812    0.0000000000    5.0782127380
   159      1    5.2674369812    0.0000000000   10.1564254760
   160      1    5.2674369812    0.0000000000   15.2346382141
   161      1   10.5348739624    5.0473561287    0.0000000000
   162      1   10.5348739624    5.0473561287    5.0782127380
   163      1   10.5348739624    5.0473561287   10.1564254760
   164      1   10.5348739624    5.0473561287   15.2346382141
   165      1   10.5348739624   10.0947122574    0.0000000000
   166      1   10.5348739624   10.0947122574    5.0782127380
   167      1   10.5348739624   10.0947122574   10.1564254760
   168      1   10.5348739624   10.0947122574   15.2346382141
   169      1   10.5348739624   15.1420688706    0.0000000000
   170      1   10.5348739624   15.1420688706    5.0782127380
   171      1   10.5348739624   15.1420688706   10.1564254760
   172      1   10.5348739624   15.1420688706   15.2346382141
   173      1   10.5348739624    0.0000000000    0.0000000000
   174      1   10.5348739624    0.0000000000    5.0782127380
   175      1   10.5348739624    0.0000000000   10.1564254760
   176      1   10.5348739624    0.0000000000   15.2346382141
   177      1   15.8023109436    5.0473561287    0.0000000000
   178      1   15.8023109436    5.0473561287    5.0782127380
   179      1   15.8023109436    5.0473561287   10.1564254760
   180      1   15.8023109436    5.0473561287   15.2346382141
   181      1   15.8023109436   10.0947122574    0.0000000000
   182      1   15.8023109436   10.0947122574    5.0782127380
   183      1   15.8023109436   10.0947122574   10.1564254760
   184      1   15.8023109436   10.0947122574   15.2346382141
   185      1   15.8023109436   15.1420688706    0.0000000000
   186      1   15.8023109436   15.1420688706    5.0782127380
   187      1   15.8023109436   15.1420688706   10.1564254760
   188      1   15.8023109436   15.1420688706   15.2346382141
   189      1   15.8023109436    0.0000000000    0.0000000000
   190      1   15.8023109436    0.0000000000    5.0782127380
   191      1   15.8023109436    0.0000000000   10.1564254760
   192      1   15.8023109436    0.0000000000   15.2346382141
   193      1    2.6337184906    2.6913785916    5.0782127380
   194      1    2.6337184906    2.6913785916   10.1564254760
   195      1    2.6337184906    2.6913785916   15.2346382141
   196      1    2.6337184906    2.6913785916    0.0000000000
   197      1    2.6337184906    7.7387347203    5.0782127380
   198      1    2.6337184906    7.7387347203   10.1564254760
   199      1    2.6337184906    7.7387347203   15.2346382141
   200      1    2.6337184906    7.7387347203    0.0000000000
   201      1    2.6337184906   12.7860917979    5.0782127380
   202      1    2.6337184906   12.7860917979   10.1564254760
   203      1    2.6337184906   12.7860917979   15.2346382141
   204      1    2.6337184906   12.7860917979    0.0000000000
   205      1    2.6337184906   17.8334484112    5.0782127380
   206      1    2.6337184906   17.8334484112   10.1564254760
   207      1    2.6337184906   17.8334484112   15.2346382141
   208      1    2.6337184906   17.8334484112    0.0000000000
   209      1    7.9011554718    2.6913785916    5.0782127380
   210      1    7.9011554718    2.6913785916   10.1564254760
   211      1    7.9011554718    2.6913785916   15.2346382141
   212      1    7.9011554718    2.6913785916    0.0000000000
   213      1    7.9011554718    7.7387347203    5.0782127380
   214      1    7.9011554718    7.7387347203   10.1564254760
   215      1    7.9011554718    7.7387347203   15.2346382141
   216      1    7.9011554718    7.7387347203    0.0000000000
   217      1    7.9011554718   12.7860917979    5.0782127380
   218      1    7.9011554718   12.7860917979   10.1564254760
   219      1    7.9011554718   12.7860917979   15.2346382141
   220      1    7.9011554718   12.7860917979    0.0000000000
   221      1    7.9011554718   17.8334484112    5.0782127380
   222      1    7.9011554718   17.8334484112   10.1564254760
   223      1    7.9011554718   17.8334484112   15.2346382141
   224      1    7.9011554718   17.8334484112    0.0000000000
   225      1   13.1685924530    2.6913785916    5.0782127380
   226      1   13.1685924530    2.6913785916   10.1564254760
   227      1   13.1685924530    2.6913785916   15.2346382141
   228      1   13.1685924530    2.6913785916    0.0000000000
   229      1   13.1685924530    7.7387347203    5.0782127380
   230      1   13.1685924530    7.7387347203   10.1564254760
   231      1   13.1685924530    7.7387347203   15.2346382141
   232      1   13.1685924530    7.7387347203    0.0000000000
   233      1   13.1685924530   12.7860917979    5.0782127380
   234      1   13.1685924530   12.7860917979   10.1564254760
   235      1   13.1685924530   12.7860917979   15.2346382141
   236      1   13.1685924530   12.7860917979    0.0000000000
   237      1   13.1685924530   17.8334484112    5.0782127380
   238      1   13.1685924530   17.8334484112   10.1564254760
   239      1   13.1685924530   17.8334484112   15.2346382141
   240      1   13.1685924530   17.8334484112    0.0000000000
   241      1   18.4360294342    2.6913785916    5.0782127380
   242      1   18.4360294342    2.6913785916   10.1564254760
   243      1   18.4360294342    2.6913785916   15.2346382141
   244      1   18.4360294342    2.6913785916    0.0000000000
   245      1   18.4360294342    7.7387347203    5.0782127380
   246      1   18.4360294342    7.7387347203   10.1564254760
   247      1   18.4360294342    7.7387347203   15.2346382141
   248      1   18.4360294342    7.7387347203    0.0000000000
   249      1   18.4360294342   12.7860917979    5.0782127380
   250      1   18.4360294342   12.7860917979   10.1564254760
   251      1   18.4360294342   12.7860917979   15.2346382141
   252      1   18.4360294342   12.7860917979    0.0000000000
   253      1   18.4360294342   17.8334484112    5.0782127380
   254      1   18.4360294342   17.8334484112   10.1564254760
   255      1   18.4360294342   17.8334484112   15.2346382141
   256      1   18.4360294342   17.8334484112    0.0000000000
   257      2    4.7326026052    1.0021793911    3.2644448212
   258      2    4.7326026052    1.0021793911    8.3426580468
   259      2    4.7326026052    1.0021793911   13.4208707848
   260      2    4.7326026052    1.0021793911   18.4990825681
   261      2    4.7326026052    6.0495357419    3.2644448212
   262      2    4.7326026052    6.0495357419    8.3426580468
   263      2    4.7326026052    6.0495357419   13.4208707848
   264      2    4.7326026052    6.0495357419   18.4990825681
   265      2    4.7326026052   11.0968914062    3.2644448212
   266      2    4.7326026052   11.0968914062    8.3426580468
   267      2    4.7326026052   11.0968914062   13.4208707848
   268      2    4.7326026052   11.0968914062   18.4990825681
   269      2    4.7326026052   16.1442470504    3.2644448212
   270      2    4.7326026052   16.1442470504    8.3426580468
   271      2    4.7326026052   16.1442470504   13.4208707848
   272      2    4.7326026052   16.1442470504   18.4990825681
   273      2   10.0000391018    1.0021793911    3.2644448212
   274      2   10.0000391018    1.0021793911    8.3426580468
   275      2   10.0000391018    1.0021793911   13.4208707848
   276      2   10.0000391018    1.0021793911   18.4990825681
   277      2   10.0000391018    6.0495357419    3.2644448212
   278      2   10.0000391018    6.0495357419    8.3426580468
   279      2   10.0000391018    6.0495357419   13.4208707848
   280      2   10.0000391018    6.0495357419   18.4990825681
   281      2   10.0000391018   11.0968914062    3.2644448212
   282      2   10.0000391018   11.0968914062    8.3426580468
   283      2   10.0000391018   11.0968914062   13.4208707848
   284      2   10.0000391018   11.0968914062   18.4990825681
   285      2   10.0000391018   16.1442470504    3.2644448212
   286      2   10.0000391018   16.1442470504    8.3426580468
   287      2   10.0000391018   16.1442470504   13.4208707848
   288      2   10.0000391018   16.1442470504   18.4990825681
   289      2   15.2674760830    1.0021793911    3.2644448212
   290      2   15.2674760830    1.0021793911    8.3426580468
   291      2   15.2674760830    1.0021793911   13.4208707848
   292      2   15.2674760830    1.0021793911   18.4990825681
   293      2   15.2674760830    6.0495357419    3.2644448212
   294      2   15.2674760830    6.0495357419    8.3426580468
   295      2   15.2674760830    6.0495357419   13.4208707848
   296      2   15.2674760830    6.0495357419   18.4990825681
   297      2   15.2674760830   11.0968914062    3.2644448212
   298      2   15.2674760830   11.0968914062    8.3426580468
   299      2   15.2674760830   11.0968914062   13.4208707848
   300      2   15.2674760830   11.0968914062   18.4990825681
   301      2   15.2674760830   16.1442470504    3.2644448212
   302      2   15.2674760830   16.1442470504    8.3426580468
   303      2   15.2674760830   16.1442470504   13.4208707848
   304      2   15.2674760830   16.1442470504   18.4990825681
   305      2   20.5349140124    1.0021793911    3.2644448212
   306      2   20.5349140124    1.0021793911    8.3426580468
   307      2   20.5349140124    1.0021793911   13.4208707848
   308      2   20.5349140124    1.0021793911   18.4990825681
   309      2   20.5349140124    6.0495357419    3.2644448212
   310      2   20.5349140124    6.0495357419    8.3426580468
   311      2   20.5349140124    6.0495357419   13.4208707848
   312      2   20.5349140124    6.0495357419   18.4990825681
   313      2   20.5349140124   11.0968914062    3.2644448212
   314      2   20.5349140124   11.0968914062    8.3426580468
   315      2   20.5349140124   11.0968914062   13.4208707848
   316      2   20.5349140124   11.0968914062   18.4990825681
   317      2   20.5349140124   16.1442470504    3.2644448212
   318      2   20.5349140124   16.1442470504    8.3426580468
   319      2   20.5349140124   16.1442470504   13.4208707848
   320      2   20.5349140124   16.1442470504   18.4990825681
   321      2    2.0988843464    1.6891994428    3.2644448212
   322      2    2.0988843464    1.6891994428    8.3426580468
   323      2    2.0988843464    1.6891994428   13.4208707848
   324      2    2.0988843464    1.6891994428   18.4990825681
   325      2    2.0988843464    6.7365555715    3.2644448212
   326      2    2.0988843464    6.7365555715    8.3426580468
   327      2    2.0988843464    6.7365555715   13.4208707848
   328      2    2.0988843464    6.7365555715   18.4990825681
   329      2    2.0988843464   11.7839117002    3.2644448212
   330      2    2.0988843464   11.7839117002    8.3426580468
   331      2    2.0988843464   11.7839117002   13.4208707848
   332      2    2.0988843464   11.7839117002   18.4990825681
   333      2    2.0988843464   16.8312683134    3.2644448212
   334      2    2.0988843464   16.8312683134    8.3426580468
   335      2    2.0988843464   16.8312683134   13.4208707848
   336      2    2.0988843464   16.8312683134   18.4990825681
   337      2    7.3663215594    1.6891994428    3.2644448212
   338      2    7.3663215594    1.6891994428    8.3426580468
   339      2    7.3663215594    1.6891994428   13.4208707848
   340      2    7.3663215594    1.6891994428   18.4990825681
   341      2    7.3663215594    6.7365555715    3.2644448212
   342      2    7.3663215594    6.7365555715    8.3426580468
   343      2    7.3663215594    6.7365555715   13.4208707848
   344      2    7.3663215594    6.7365555715   18.4990825681
   345      2    7.3663215594   11.7839117002    3.2644448212
   346      2    7.3663215594   11.7839117002    8.3426580468
   347      2    7.3663215594   11.7839117002   13.4208707848
   348      2    7.3663215594   11.7839117002   18.4990825681
   349      2    7.3663215594   16.8312683134    3.2644448212
   350      2    7.3663215594   16.8312683134    8.3426580468
   351      2    7.3663215594   16.8312683134   13.4208707848
   352      2    7.3663215594   16.8312683134   18.4990825681
   353      2   12.6337575924    1.6891994428    3.2644448212
   354      2   12.6337575924    1.6891994428    8.3426580468
   355      2   12.6337575924    1.6891994428   13.4208707848
   356      2   12.6337575924    1.6891994428   18.4990825681
   357      2   12.6337575924    6.7365555715    3.2644448212
   358      2   12.6337575924    6.7365555715    8.3426580468
   359      2   12.6337575924    6.7365555715   13.4208707848
   360      2   12.6337575924    6.7365555715   18.4990825681
   361      2   12.6337575924   11.7839117002    3.2644448212
   362      2   12.6337575924   11.7839117002    8.3426580468
   363      2   12.6337575924   11.7839117002   13.4208707848
   364      2   12.6337575924   11.7839117002   18.4990825681
   365      2   12.6337575924   16.8312683134    3.2644448212
   366      2   12.6337575924   16.8312683134    8.3426580468
   367      2   12.6337575924   16.8312683134   13.4208707848
   368      2   12.6337575924   16.8312683134   18.4990825681
   369      2   17.9011955218    1.6891994428    3.2644448212
   370      2   17.9011955218    1.6891994428    8.3426580468
   371      2   17.9011955218    1.6891994428   13.4208707848
   372      2   17.9011955218    1.6891994428   18.4990825681
   373      2   17.9011955218    6.7365555715    3.2644448212
   374      2   17.9011955218    6.7365555715    8.3426580468
   375      2   17.9011955218    6.7365555715   13.4208707848
   376      2   17.9011955218    6.7365555715   18.4990825681
   377      2   17.9011955218   11.7839117002    3.2644448212
   378      2   17.9011955218   11.7839117002    8.3426580468
   379      2   17.9011955218   11.7839117002   13.4208707848
   380      2   17.9011955218   11.7839117002   18.4990825681
   381      2   17.9011955218   16.8312683134    3.2644448212
   382      2   17.9011955218   16.8312683134    8.3426580468
   383      2   17.9011955218   16.8312683134   13.4208707848
   384      2   17.9011955218   16.8312683134   18.4990825681
   385      2    4.0204639407    3.6796839313    3.8098170813
   386      2    4.0204639407    3.6796839313    8.8880300428
   387      2    4.0204639407    3.6796839313   13.9662427808
   388      2    4.0204639407    3.6796839313   19.0444545845
   389      2    4.0204639407    8.7270402821    3.8098170813
   390      2    4.0204639407    8.7270402821    8.8880300428
   391      2    4.0204639407    8.7270402821   13.9662427808
   392      2    4.0204639407    8.7270402821   19.0444545845
   393      2    4.0204639407   13.7743968954    3.8098170813
   394      2    4.0204639407   13.7743968954    8.8880300428
   395      2    4.0204639407   13.7743968954   13.9662427808
   396      2    4.0204639407   13.7743968954   19.0444545845
   397      2    4.0204639407   18.8217525395    3.8098170813
   398      2    4.0204639407   18.8217525395    8.8880300428
   399      2    4.0204639407   18.8217525395   13.9662427808
   400      2    4.0204639407   18.8217525395   19.0444545845
   401      2    9.2879009219    3.6796839313    3.8098170813
   402      2    9.2879009219    3.6796839313    8.8880300428
   403      2    9.2879009219    3.6796839313   13.9662427808
   404      2    9.2879009219    3.6796839313   19.0444545845
   405      2    9.2879009219    8.7270402821    3.8098170813
   406      2    9.2879009219    8.7270402821    8.8880300428
   407      2    9.2879009219    8.7270402821   13.9662427808
   408      2    9.2879009219    8.7270402821   19.0444545845
   409      2    9.2879009219   13.7743968954    3.8098170813
   410      2    9.2879009219   13.7743968954    8.8880300428
   411      2    9.2879009219   13.7743968954   13.9662427808
   412      2    9.2879009219   13.7743968954   19.0444545845
   413      2    9.2879009219   18.8217525395    3.8098170813
   414      2    9.2879009219   18.8217525395    8.8880300428
   415      2    9.2879009219   18.8217525395   13.9662427808
   416      2    9.2879009219   18.8217525395   19.0444545845
   417      2   14.5553379031    3.6796839313    3.8098170813
   418      2   14.5553379031    3.6796839313    8.8880300428
   419      2   14.5553379031    3.6796839313   13.9662427808
   420      2   14.5553379031    3.6796839313   19.0444545845
   421      2   14.5553379031    8.7270402821    3.8098170813
   422      2   14.5553379031    8.7270402821    8.8880300428
   423      2   14.5553379031    8.7270402821   13.9662427808
   424      2   14.5553379031    8.7270402821   19.0444545845
   425      2   14.5553379031   13.7743968954    3.8098170813
   426      2   14.5553379031   13.7743968954    8.8880300428
   427      2   14.5553379031   13.7743968954   13.9662427808
   428      2   14.5553379031   13.7743968954   19.0444545845
   429      2   14.5553379031   18.8217525395    3.8098170813
   430      2   14.5553379031   18.8217525395    8.8880300428
   431      2   14.5553379031   18.8217525395   13.9662427808
   432      2   14.5553379031   18.8217525395   19.0444545845
   433      2   19.8227748843    3.6796839313    3.8098170813
   434      2   19.8227748843    3.6796839313    8.8880300428
   435      2   19.8227748843    3.6796839313   13.9662427808
   436      2   19.8227748843    3.6796839313   19.0444545845
   437      2   19.8227748843    8.7270402821    3.8098170813
   438      2   19.8227748843    8.7270402821    8.8880300428
   439      2   19.8227748843    8.7270402821   13.9662427808
   440      2   19.8227748843    8.7270402821   19.0444545845
   441      2   19.8227748843   13.7743968954    3.8098170813
   442      2   19.8227748843   13.7743968954    8.8880300428
   443      2   19.8227748843   13.7743968954   13.9662427808
   444      2   19.8227748843   13.7743968954   19.0444545845
   445      2   19.8227748843   18.8217525395    3.8098170813
   446      2   19.8227748843   18.8217525395    8.8880300428
   447      2   19.8227748843   18.8217525395   13.9662427808
   448      2   19.8227748843   18.8217525395   19.0444545845
   449      2    1.3867456818    4.0590510313    3.8098163704
   450      2    1.3867456818    4.0590510313    8.8880291084
   451      2    1.3867456818    4.0590510313   13.9662427808
   452      2    1.3867456818    4.0590510313   19.0444545845
   453      2    1.3867456818    9.1064071600    3.8098163704
   454      2    1.3867456818    9.1064071600    8.8880291084
   455      2    1.3867456818    9.1064071600   13.9662427808
   456      2    1.3867456818    9.1064071600   19.0444545845
   457      2    1.3867456818   14.1537628243    3.8098163704
   458      2    1.3867456818   14.1537628243    8.8880291084
   459      2    1.3867456818   14.1537628243   13.9662427808
   460      2    1.3867456818   14.1537628243   19.0444545845
   461      2    1.3867456818   19.2011184685    3.8098163704
   462      2    1.3867456818   19.2011184685    8.8880291084
   463      2    1.3867456818   19.2011184685   13.9662427808
   464      2    1.3867456818   19.2011184685   19.0444545845
   465      2    6.6541824313    4.0590510313    3.8098163704
   466      2    6.6541824313    4.0590510313    8.8880291084
   467      2    6.6541824313    4.0590510313   13.9662427808
   468      2    6.6541824313    4.0590510313   19.0444545845
   469      2    6.6541824313    9.1064071600    3.8098163704
   470      2    6.6541824313    9.1064071600    8.8880291084
   471      2    6.6541824313    9.1064071600   13.9662427808
   472      2    6.6541824313    9.1064071600   19.0444545845
   473      2    6.6541824313   14.1537628243    3.8098163704
   474      2    6.6541824313   14.1537628243    8.8880291084
   475      2    6.6541824313   14.1537628243   13.9662427808
   476      2    6.6541824313   14.1537628243   19.0444545845
   477      2    6.6541824313   19.2011184685    3.8098163704
   478      2    6.6541824313   19.2011184685    8.8880291084
   479      2    6.6541824313   19.2011184685   13.9662427808
   480      2    6.6541824313   19.2011184685   19.0444545845