
12000 atoms
2 atom types
   0.0000000000   52.6565208435 xlo xhi
   0.0000000000   50.4828796387 ylo yhi
   0.0000000000   50.7683525085 zlo zhi
   0.0000000000    0.0000000000    0.0000000000 xy xz yz

Atoms # atomic

     1      1    0.0000000000    0.0000000000    0.0000000000
     2      1    0.0000000000    0.0000000000    5.0768351493
     3      1    0.0000000000    0.0000000000   10.1536702986
     4      1    0.0000000000    0.0000000000   15.2305059556
     5      1    0.0000000000    0.0000000000   20.3073405973
     6      1    0.0000000000    0.0000000000   25.3841762543
     7      1    0.0000000000    0.0000000000   30.4610119112
     8      1    0.0000000000    0.0000000000   35.5378455883
     9      1    0.0000000000    0.0000000000   40.6146812453
    10      1    0.0000000000    0.0000000000   45.6915168515
    11      1    0.0000000000   10.0965757258    0.0000000000
    12      1    0.0000000000   10.0965757258    5.0768351493
    13      1    0.0000000000   10.0965757258   10.1536702986
    14      1    0.0000000000   10.0965757258   15.2305059556
    15      1    0.0000000000   10.0965757258   20.3073405973
    16      1    0.0000000000   10.0965757258   25.3841762543
    17      1    0.0000000000   10.0965757258   30.4610119112
    18      1    0.0000000000   10.0965757258   35.5378455883
    19      1    0.0000000000   10.0965757258   40.6146812453
    20      1    0.0000000000   10.0965757258   45.6915168515
    21      1    0.0000000000   20.1931514516    0.0000000000
    22      1    0.0000000000   20.1931514516    5.0768351493
    23      1    0.0000000000   20.1931514516   10.1536702986
    24      1    0.0000000000   20.1931514516   15.2305059556
    25      1    0.0000000000   20.1931514516   20.3073405973
    26      1    0.0000000000   20.1931514516   25.3841762543
    27      1    0.0000000000   20.1931514516   30.4610119112
    28      1    0.0000000000   20.1931514516   35.5378455883
    29      1    0.0000000000   20.1931514516   40.6146812453
    30      1    0.0000000000   20.1931514516   45.6915168515
    31      1    0.0000000000   30.2897281871    0.0000000000
    32      1    0.0000000000   30.2897281871    5.0768351493
    33      1    0.0000000000   30.2897281871   10.1536702986
    34      1    0.0000000000   30.2897281871   15.2305059556
    35      1    0.0000000000   30.2897281871   20.3073405973
    36      1    0.0000000000   30.2897281871   25.3841762543
    37      1    0.0000000000   30.2897281871   30.4610119112
    38      1    0.0000000000   30.2897281871   35.5378455883
    39      1    0.0000000000   30.2897281871   40.6146812453
    40      1    0.0000000000   30.2897281871   45.6915168515
    41      1    0.0000000000   40.3863029537    0.0000000000
    42      1    0.0000000000   40.3863029537    5.0768351493
    43      1    0.0000000000   40.3863029537   10.1536702986
    44      1    0.0000000000   40.3863029537   15.2305059556
    45      1    0.0000000000   40.3863029537   20.3073405973
    46      1    0.0000000000   40.3863029537   25.3841762543
    47      1    0.0000000000   40.3863029537   30.4610119112
    48      1    0.0000000000   40.3863029537   35.5378455883
    49      1    0.0000000000   40.3863029537   40.6146812453
    50      1    0.0000000000   40.3863029537   45.6915168515
    51      1   10.5313043793    0.0000000000    0.0000000000
    52      1   10.5313043793    0.0000000000    5.0768351493
    53      1   10.5313043793    0.0000000000   10.1536702986
    54      1   10.5313043793    0.0000000000   15.2305059556
    55      1   10.5313043793    0.0000000000   20.3073405973
    56      1   10.5313043793    0.0000000000   25.3841762543
    57      1   10.5313043793    0.0000000000   30.4610119112
    58      1   10.5313043793    0.0000000000   35.5378455883
    59      1   10.5313043793    0.0000000000   40.6146812453
    60      1   10.5313043793    0.0000000000   45.6915168515
    61      1   10.5313043793   10.0965757258    0.0000000000
    62      1   10.5313043793   10.0965757258    5.0768351493
    63      1   10.5313043793   10.0965757258   10.1536702986
    64      1   10.5313043793   10.0965757258   15.2305059556
    65      1   10.5313043793   10.0965757258   20.3073405973
    66      1   10.5313043793   10.0965757258   25.3841762543
    67      1   10.5313043793   10.0965757258   30.4610119112
    68      1   10.5313043793   10.0965757258   35.5378455883
    69      1   10.5313043793   10.0965757258   40.6146812453
    70      1   10.5313043793   10.0965757258   45.6915168515
    71      1   10.5313043793   20.1931514516    0.0000000000
    72      1   10.5313043793   20.1931514516    5.0768351493
    73      1   10.5313043793   20.1931514516   10.1536702986
    74      1   10.5313043793   20.1931514516   15.2305059556
    75      1   10.5313043793   20.1931514516   20.3073405973
    76      1   10.5313043793   20.1931514516   25.3841762543
    77      1   10.5313043793   20.1931514516   30.4610119112
    78      1   10.5313043793   20.1931514516   35.5378455883
    79      1   10.5313043793   20.1931514516   40.6146812453
    80      1   10.5313043793   20.1931514516   45.6915168515
    81      1   10.5313043793   30.2897281871    0.0000000000
    82      1   10.5313043793   30.2897281871    5.0768351493
    83      1   10.5313043793   30.2897281871   10.1536702986
    84      1   10.5313043793   30.2897281871   15.2305059556
    85      1   10.5313043793   30.2897281871   20.3073405973
    86      1   10.5313043793   30.2897281871   25.3841762543
    87      1   10.5313043793   30.2897281871   30.4610119112
    88      1   10.5313043793   30.2897281871   35.5378455883
    89      1   10.5313043793   30.2897281871   40.6146812453
    90      1   10.5313043793   30.2897281871   45.6915168515
    91      1   10.5313043793   40.3863029537    0.0000000000
    92      1   10.5313043793   40.3863029537    5.0768351493
    93      1   10.5313043793   40.3863029537   10.1536702986
    94      1   10.5313043793   40.3863029537   15.2305059556
    95      1   10.5313043793   40.3863029537   20.3073405973
    96      1   10.5313043793   40.3863029537   25.3841762543
    97      1   10.5313043793   40.3863029537   30.4610119112
    98      1   10.5313043793   40.3863029537   35.5378455883
    99      1   10.5313043793   40.3863029537   40.6146812453
   100      1   10.5313043793   40.3863029537   45.6915168515
   101      1   21.0626087060    0.0000000000    0.0000000000
   102      1   21.0626087060    0.0000000000    5.0768351493
   103      1   21.0626087060    0.0000000000   10.1536702986
   104      1   21.0626087060    0.0000000000   15.2305059556
   105      1   21.0626087060    0.0000000000   20.3073405973
   106      1   21.0626087060    0.0000000000   25.3841762543
   107      1   21.0626087060    0.0000000000   30.4610119112
   108      1   21.0626087060    0.0000000000   35.5378455883
   109      1   21.0626087060    0.0000000000   40.6146812453
   110      1   21.0626087060    0.0000000000   45.6915168515
   111      1   21.0626087060   10.0965757258    0.0000000000
   112      1   21.0626087060   10.0965757258    5.0768351493
   113      1   21.0626087060   10.0965757258   10.1536702986
   114      1   21.0626087060   10.0965757258   15.2305059556
   115      1   21.0626087060   10.0965757258   20.3073405973
   116      1   21.0626087060   10.0965757258   25.3841762543
   117      1   21.0626087060   10.0965757258   30.4610119112
   118      1   21.0626087060   10.0965757258   35.5378455883
   119      1   21.0626087060   10.0965757258   40.6146812453
   120      1   21.0626087060   10.0965757258   45.6915168515
   121      1   21.0626087060   20.1931514516    0.0000000000
   122      1   21.0626087060   20.1931514516    5.0768351493
   123      1   21.0626087060   20.1931514516   10.1536702986
   124      1   21.0626087060   20.1931514516   15.2305059556
   125      1   21.0626087060   20.1931514516   20.3073405973
   126      1   21.0626087060   20.1931514516   25.3841762543
   127      1   21.0626087060   20.1931514516   30.4610119112
   128      1   21.0626087060   20.1931514516   35.5378455883
   129      1   21.0626087060   20.1931514516   40.6146812453
   130      1   21.0626087060   20.1931514516   45.6915168515
   131      1   21.0626087060   30.2897281871    0.0000000000
   132      1   21.0626087060   30.2897281871    5.0768351493
   133      1   21.0626087060   30.2897281871   10.1536702986
   134      1   21.0626087060   30.2897281871   15.2305059556
   135      1   21.0626087060   30.2897281871   20.3073405973
   136      1   21.0626087060   30.2897281871   25.3841762543
   137      1   21.0626087060   30.2897281871   30.4610119112
   138      1   21.0626087060   30.2897281871   35.5378455883
   139      1   21.0626087060   30.2897281871   40.6146812453
   140      1   21.0626087060   30.2897281871   45.6915168515
   141      1   21.0626087060   40.3863029537    0.0000000000
   142      1   21.0626087060   40.3863029537    5.0768351493
   143      1   21.0626087060   40.3863029537   10.1536702986
   144      1   21.0626087060   40.3863029537   15.2305059556
   145      1   21.0626087060   40.3863029537   20.3073405973
   146      1   21.0626087060   40.3863029537   25.3841762543
   147      1   21.0626087060   40.3863029537   30.4610119112
   148      1   21.0626087060   40.3863029537   35.5378455883
   149      1   21.0626087060   40.3863029537   40.6146812453
   150      1   21.0626087060   40.3863029537   45.6915168515
   151      1   31.5939140331    0.0000000000    0.0000000000
   152      1   31.5939140331    0.0000000000    5.0768351493
   153      1   31.5939140331    0.0000000000   10.1536702986
   154      1   31.5939140331    0.0000000000   15.2305059556
   155      1   31.5939140331    0.0000000000   20.3073405973
   156      1   31.5939140331    0.0000000000   25.3841762543
   157      1   31.5939140331    0.0000000000   30.4610119112
   158      1   31.5939140331    0.0000000000   35.5378455883
   159      1   31.5939140331    0.0000000000   40.6146812453
   160      1   31.5939140331    0.0000000000   45.6915168515
   161      1   31.5939140331   10.0965757258    0.0000000000
   162      1   31.5939140331   10.0965757258    5.0768351493
   163      1   31.5939140331   10.0965757258   10.1536702986
   164      1   31.5939140331   10.0965757258   15.2305059556
   165      1   31.5939140331   10.0965757258   20.3073405973
   166      1   31.5939140331   10.0965757258   25.3841762543
   167      1   31.5939140331   10.0965757258   30.4610119112
   168      1   31.5939140331   10.0965757258   35.5378455883
   169      1   31.5939140331   10.0965757258   40.6146812453
   170      1   31.5939140331   10.0965757258   45.6915168515
   171      1   31.5939140331   20.1931514516    0.0000000000
   172      1   31.5939140331   20.1931514516    5.0768351493
   173      1   31.5939140331   20.1931514516   10.1536702986
   174      1   31.5939140331   20.1931514516   15.2305059556
   175      1   31.5939140331   20.1931514516   20.3073405973
   176      1   31.5939140331   20.1931514516   25.3841762543
   177      1   31.5939140331   20.1931514516   30.4610119112
   178      1   31.5939140331   20.1931514516   35.5378455883
   179      1   31.5939140331   20.1931514516   40.6146812453
   180      1   31.5939140331   20.1931514516   45.6915168515
   181      1   31.5939140331   30.2897281871    0.0000000000
   182      1   31.5939140331   30.2897281871    5.0768351493
   183      1   31.5939140331   30.2897281871   10.1536702986
   184      1   31.5939140331   30.2897281871   15.2305059556
   185      1   31.5939140331   30.2897281871   20.3073405973
   186      1   31.5939140331   30.2897281871   25.3841762543
   187      1   31.5939140331   30.2897281871   30.4610119112
   188      1   31.5939140331   30.2897281871   35.5378455883
   189      1   31.5939140331   30.2897281871   40.6146812453
   190      1   31.5939140331   30.2897281871   45.6915168515
   191      1   31.5939140331   40.3863029537    0.0000000000
   192      1   31.5939140331   40.3863029537    5.0768351493
   193      1   31.5939140331   40.3863029537   10.1536702986
   194      1   31.5939140331   40.3863029537   15.2305059556
   195      1   31.5939140331   40.3863029537   20.3073405973
   196      1   31.5939140331   40.3863029537   25.3841762543
   197      1   31.5939140331   40.3863029537   30.4610119112
   198      1   31.5939140331   40.3863029537   35.5378455883
   199      1   31.5939140331   40.3863029537   40.6146812453
   200      1   31.5939140331   40.3863029537   45.6915168515
   201      1   42.1252174120    0.0000000000    0.0000000000
   202      1   42.1252174120    0.0000000000    5.0768351493
   203      1   42.1252174120    0.0000000000   10.1536702986
   204      1   42.1252174120    0.0000000000   15.2305059556
   205      1   42.1252174120    0.0000000000   20.3073405973
   206      1   42.1252174120    0.0000000000   25.3841762543
   207      1   42.1252174120    0.0000000000   30.4610119112
   208      1   42.1252174120    0.0000000000   35.5378455883
   209      1   42.1252174120    0.0000000000   40.6146812453
   210      1   42.1252174120    0.0000000000   45.6915168515
   211      1   42.1252174120   10.0965757258    0.0000000000
   212      1   42.1252174120   10.0965757258    5.0768351493
   213      1   42.1252174120   10.0965757258   10.1536702986
   214      1   42.1252174120   10.0965757258   15.2305059556
   215      1   42.1252174120   10.0965757258   20.3073405973
   216      1   42.1252174120   10.0965757258   25.3841762543
   217      1   42.1252174120   10.0965757258   30.4610119112
   218      1   42.1252174120   10.0965757258   35.5378455883
   219      1   42.1252174120   10.0965757258   40.6146812453
   220      1   42.1252174120   10.0965757258   45.6915168515
   221      1   42.1252174120   20.1931514516    0.0000000000
   222      1   42.1252174120   20.1931514516    5.0768351493
   223      1   42.1252174120   20.1931514516   10.1536702986
   224      1   42.1252174120   20.1931514516   15.2305059556
   225      1   42.1252174120   20.1931514516   20.3073405973
   226      1   42.1252174120   20.1931514516   25.3841762543
   227      1   42.1252174120   20.1931514516   30.4610119112
   228      1   42.1252174120   20.1931514516   35.5378455883
   229      1   42.1252174120   20.1931514516   40.6146812453
   230      1   42.1252174120   20.1931514516   45.6915168515
   231      1   42.1252174120   30.2897281871    0.0000000000
   232      1   42.1252174120   30.2897281871    5.0768351493
   233      1   42.1252174120   30.2897281871   10.1536702986
   234      1   42.1252174120   30.2897281871   15.2305059556
   235      1   42.1252174120   30.2897281871   20.3073405973
   236      1   42.1252174120   30.2897281871   25.3841762543
   237      1   42.1252174120   30.2897281871   30.4610119112
   238      1   42.1252174120   30.2897281871   35.5378455883
   239      1   42.1252174120   30.2897281871   40.6146812453
   240      1   42.1252174120   30.2897281871   45.6915168515
   241      1   42.1252174120   40.3863029537    0.0000000000
   242      1   42.1252174120   40.3863029537    5.0768351493
   243      1   42.1252174120   40.3863029537   10.1536702986
   244      1   42.1252174120   40.3863029537   15.2305059556
   245      1   42.1252174120   40.3863029537   20.3073405973
   246      1   42.1252174120   40.3863029537   25.3841762543
   247      1   42.1252174120   40.3863029537   30.4610119112
   248      1   42.1252174120   40.3863029537   35.5378455883
   249      1   42.1252174120   40.3863029537   40.6146812453
   250      1   42.1252174120   40.3863029537   45.6915168515
   251      1    0.0000000000    5.0482878629    0.0000000000
   252      1    0.0000000000    5.0482878629    5.0768351493
   253      1    0.0000000000    5.0482878629   10.1536702986
   254      1    0.0000000000    5.0482878629   15.2305059556
   255      1    0.0000000000    5.0482878629   20.3073405973
   256      1    0.0000000000    5.0482878629   25.3841762543
   257      1    0.0000000000    5.0482878629   30.4610119112
   258      1    0.0000000000    5.0482878629   35.5378455883
   259      1    0.0000000000    5.0482878629   40.6146812453
   260      1    0.0000000000    5.0482878629   45.6915168515
   261      1    0.0000000000   15.1448640935    0.0000000000
   262      1    0.0000000000   15.1448640935    5.0768351493
   263      1    0.0000000000   15.1448640935   10.1536702986
   264      1    0.0000000000   15.1448640935   15.2305059556
   265      1    0.0000000000   15.1448640935   20.3073405973
   266      1    0.0000000000   15.1448640935   25.3841762543
   267      1    0.0000000000   15.1448640935   30.4610119112
   268      1    0.0000000000   15.1448640935   35.5378455883
   269      1    0.0000000000   15.1448640935   40.6146812453
   270      1    0.0000000000   15.1448640935   45.6915168515
   271      1    0.0000000000   25.2414398193    0.0000000000
   272      1    0.0000000000   25.2414398193    5.0768351493
   273      1    0.0000000000   25.2414398193   10.1536702986
   274      1    0.0000000000   25.2414398193   15.2305059556
   275      1    0.0000000000   25.2414398193   20.3073405973
   276      1    0.0000000000   25.2414398193   25.3841762543
   277      1    0.0000000000   25.2414398193   30.4610119112
   278      1    0.0000000000   25.2414398193   35.5378455883
   279      1    0.0000000000   25.2414398193   40.6146812453
   280      1    0.0000000000   25.2414398193   45.6915168515
   281      1    0.0000000000   35.3380165043    0.0000000000
   282      1    0.0000000000   35.3380165043    5.0768351493
   283      1    0.0000000000   35.3380165043   10.1536702986
   284      1    0.0000000000   35.3380165043   15.2305059556
   285      1    0.0000000000   35.3380165043   20.3073405973
   286      1    0.0000000000   35.3380165043   25.3841762543
   287      1    0.0000000000   35.3380165043   30.4610119112
   288      1    0.0000000000   35.3380165043   35.5378455883
   289      1    0.0000000000   35.3380165043   40.6146812453
   290      1    0.0000000000   35.3380165043   45.6915168515
   291      1    0.0000000000   45.4345931893    0.0000000000
   292      1    0.0000000000   45.4345931893    5.0768351493
   293      1    0.0000000000   45.4345931893   10.1536702986
   294      1    0.0000000000   45.4345931893   15.2305059556
   295      1    0.0000000000   45.4345931893   20.3073405973
   296      1    0.0000000000   45.4345931893   25.3841762543
   297      1    0.0000000000   45.4345931893   30.4610119112
   298      1    0.0000000000   45.4345931893   35.5378455883
   299      1    0.0000000000   45.4345931893   40.6146812453
   300      1    0.0000000000   45.4345931893   45.6915168515
   301      1   10.5313043793    5.0482878629    0.0000000000
   302      1   10.5313043793    5.0482878629    5.0768351493
   303      1   10.5313043793    5.0482878629   10.1536702986
   304      1   10.5313043793    5.0482878629   15.2305059556
   305      1   10.5313043793    5.0482878629   20.3073405973
   306      1   10.5313043793    5.0482878629   25.3841762543
   307      1   10.5313043793    5.0482878629   30.4610119112
   308      1   10.5313043793    5.0482878629   35.5378455883
   309      1   10.5313043793    5.0482878629   40.6146812453
   310      1   10.5313043793    5.0482878629   45.6915168515
   311      1   10.5313043793   15.1448640935    0.0000000000
   312      1   10.5313043793   15.1448640935    5.0768351493
   313      1   10.5313043793   15.1448640935   10.1536702986
   314      1   10.5313043793   15.1448640935   15.2305059556
   315      1   10.5313043793   15.1448640935   20.3073405973
   316      1   10.5313043793   15.1448640935   25.3841762543
   317      1   10.5313043793   15.1448640935   30.4610119112
   318      1   10.5313043793   15.1448640935   35.5378455883
   319      1   10.5313043793   15.1448640935   40.6146812453
   320      1   10.5313043793   15.1448640935   45.6915168515
   321      1   10.5313043793   25.2414398193    0.0000000000
   322      1   10.5313043793   25.2414398193    5.0768351493
   323      1   10.5313043793   25.2414398193   10.1536702986
   324      1   10.5313043793   25.2414398193   15.2305059556
   325      1   10.5313043793   25.2414398193   20.3073405973
   326      1   10.5313043793   25.2414398193   25.3841762543
   327      1   10.5313043793   25.2414398193   30.4610119112
   328      1   10.5313043793   25.2414398193   35.5378455883
   329      1   10.5313043793   25.2414398193   40.6146812453
   330      1   10.5313043793   25.2414398193   45.6915168515
   331      1   10.5313043793   35.3380165043    0.0000000000
   332      1   10.5313043793   35.3380165043    5.0768351493
   333      1   10.5313043793   35.3380165043   10.1536702986
   334      1   10.5313043793   35.3380165043   15.2305059556
   335      1   10.5313043793   35.3380165043   20.3073405973
   336      1   10.5313043793   35.3380165043   25.3841762543
   337      1   10.5313043793   35.3380165043   30.4610119112
   338      1   10.5313043793   35.3380165043   35.5378455883
   339      1   10.5313043793   35.3380165043   40.6146812453
   340      1   10.5313043793   35.3380165043   45.6915168515
   341      1   10.5313043793   45.4345931893    0.0000000000
   342      1   10.5313043793   45.4345931893    5.0768351493
   343      1   10.5313043793   45.4345931893   10.1536702986
   344      1   10.5313043793   45.4345931893   15.2305059556
   345      1   10.5313043793   45.4345931893   20.3073405973
   346      1   10.5313043793   45.4345931893   25.3841762543
   347      1   10.5313043793   45.4345931893   30.4610119112
   348      1   10.5313043793   45.4345931893   35.5378455883
   349      1   10.5313043793   45.4345931893   40.6146812453
   350      1   10.5313043793   45.4345931893   45.6915168515
   351      1   21.0626087060    5.0482878629    0.0000000000
   352      1   21.0626087060    5.0482878629    5.0768351493
   353      1   21.0626087060    5.0482878629   10.1536702986
   354      1   21.0626087060    5.0482878629   15.2305059556
   355      1   21.0626087060    5.0482878629   20.3073405973
   356      1   21.0626087060    5.0482878629   25.3841762543
   357      1   21.0626087060    5.0482878629   30.4610119112
   358      1   21.0626087060    5.0482878629   35.5378455883
   359      1   21.0626087060    5.0482878629   40.6146812453
   360      1   21.0626087060    5.0482878629   45.6915168515
   361      1   21.0626087060   15.1448640935    0.0000000000
   362      1   21.0626087060   15.1448640935    5.0768351493
   363      1   21.0626087060   15.1448640935   10.1536702986
   364      1   21.0626087060   15.1448640935   15.2305059556
   365      1   21.0626087060   15.1448640935   20.3073405973
   366      1   21.0626087060   15.1448640935   25.3841762543
   367      1   21.0626087060   15.1448640935   30.4610119112
   368      1   21.0626087060   15.1448640935   35.5378455883
   369      1   21.0626087060   15.1448640935   40.6146812453
   370      1   21.0626087060   15.1448640935   45.6915168515
   371      1   21.0626087060   25.2414398193    0.0000000000
   372      1   21.0626087060   25.2414398193    5.0768351493
   373      1   21.0626087060   25.2414398193   10.1536702986
   374      1   21.0626087060   25.2414398193   15.2305059556
   375      1   21.0626087060   25.2414398193   20.3073405973
   376      1   21.0626087060   25.2414398193   25.3841762543
   377      1   21.0626087060   25.2414398193   30.4610119112
   378      1   21.0626087060   25.2414398193   35.5378455883
   379      1   21.0626087060   25.2414398193   40.6146812453
   380      1   21.0626087060   25.2414398193   45.6915168515
   381      1   21.0626087060   35.3380165043    0.0000000000
   382      1   21.0626087060   35.3380165043    5.0768351493
   383      1   21.0626087060   35.3380165043   10.1536702986
   384      1   21.0626087060   35.3380165043   15.2305059556
   385      1   21.0626087060   35.3380165043   20.3073405973
   386      1   21.0626087060   35.3380165043   25.3841762543
   387      1   21.0626087060   35.3380165043   30.4610119112
   388      1   21.0626087060   35.3380165043   35.5378455883
   389      1   21.0626087060   35.3380165043   40.6146812453
   390      1   21.0626087060   35.3380165043   45.6915168515
   391      1   21.0626087060   45.4345931893    0.0000000000
   392      1   21.0626087060   45.4345931893    5.0768351493
   393      1   21.0626087060   45.4345931893   10.1536702986
   394      1   21.0626087060   45.4345931893   15.2305059556
   395      1   21.0626087060   45.4345931893   20.3073405973
   396      1   21.0626087060   45.4345931893   25.3841762543
   397      1   21.0626087060   45.4345931893   30.4610119112
   398      1   21.0626087060   45.4345931893   35.5378455883
   399      1   21.0626087060   45.4345931893   40.6146812453
   400      1   21.0626087060   45.4345931893   45.6915168515
   401      1   31.5939140331    5.0482878629    0.0000000000
   402      1   31.5939140331    5.0482878629    5.0768351493
   403      1   31.5939140331    5.0482878629   10.1536702986
   404      1   31.5939140331    5.0482878629   15.2305059556
   405      1   31.5939140331    5.0482878629   20.3073405973
   406      1   31.5939140331    5.0482878629   25.3841762543
   407      1   31.5939140331    5.0482878629   30.4610119112
   408      1   31.5939140331    5.0482878629   35.5378455883
   409      1   31.5939140331    5.0482878629   40.6146812453
   410      1   31.5939140331    5.0482878629   45.6915168515
   411      1   31.5939140331   15.1448640935    0.0000000000
   412      1   31.5939140331   15.1448640935    5.0768351493
   413      1   31.5939140331   15.1448640935   10.1536702986
   414      1   31.5939140331   15.1448640935   15.2305059556
   415      1   31.5939140331   15.1448640935   20.3073405973
   416      1   31.5939140331   15.1448640935   25.3841762543
   417      1   31.5939140331   15.1448640935   30.4610119112
   418      1   31.5939140331   15.1448640935   35.5378455883
   419      1   31.5939140331   15.1448640935   40.6146812453
   420      1   31.5939140331   15.1448640935   45.6915168515
   421      1   31.5939140331   25.2414398193    0.0000000000
   422      1   31.5939140331   25.2414398193    5.0768351493
   423      1   31.5939140331   25.2414398193   10.1536702986
   424      1   31.5939140331   25.2414398193   15.2305059556
   425      1   31.5939140331   25.2414398193   20.3073405973
   426      1   31.5939140331   25.2414398193   25.3841762543
   427      1   31.5939140331   25.2414398193   30.4610119112
   428      1   31.5939140331   25.2414398193   35.5378455883
   429      1   31.5939140331   25.2414398193   40.6146812453
   430      1   31.5939140331   25.2414398193   45.6915168515
   431      1   31.5939140331   35.3380165043    0.0000000000
   432      1   31.5939140331   35.3380165043    5.0768351493
   433      1   31.5939140331   35.3380165043   10.1536702986
   434      1   31.5939140331   35.3380165043   15.2305059556
   435      1   31.5939140331   35.3380165043   20.3073405973
   436      1   31.5939140331   35.3380165043   25.3841762543
   437      1   31.5939140331   35.3380165043   30.4610119112
   438      1   31.5939140331   35.3380165043   35.5378455883
   439      1   31.5939140331   35.3380165043   40.6146812453
   440      1   31.5939140331   35.3380165043   45.6915168515
   441      1   31.5939140331   45.4345931893    0.0000000000
   442      1   31.5939140331   45.4345931893    5.0768351493
   443      1   31.5939140331   45.4345931893   10.1536702986
   444      1   31.5939140331   45.4345931893   15.2305059556
   445      1   31.5939140331   45.4345931893   20.3073405973
   446      1   31.5939140331   45.4345931893   25.3841762543
   447      1   31.5939140331   45.4345931893   30.4610119112
   448      1   31.5939140331   45.4345931893   35.5378455883
   449      1   31.5939140331   45.4345931893   40.6146812453
   450      1   31.5939140331   45.4345931893   45.6915168515
   451      1   42.1252174120    5.0482878629    0.0000000000
   452      1   42.1252174120    5.0482878629    5.0768351493
   453      1   42.1252174120    5.0482878629   10.1536702986
   454      1   42.1252174120    5.0482878629   15.2305059556
   455      1   42.1252174120    5.0482878629   20.3073405973
   456      1   42.1252174120    5.0482878629   25.3841762543
   457      1   42.1252174120    5.0482878629   30.4610119112
   458      1   42.1252174120    5.0482878629   35.5378455883
   459      1   42.1252174120    5.0482878629   40.6146812453
   460      1   42.1252174120    5.0482878629   45.6915168515
   461      1   42.1252174120   15.1448640935    0.0000000000
   462      1   42.1252174120   15.1448640935    5.0768351493
   463      1   42.1252174120   15.1448640935   10.1536702986
   464      1   42.1252174120   15.1448640935   15.2305059556
   465      1   42.1252174120   15.1448640935   20.3073405973
   466      1   42.1252174120   15.1448640935   25.3841762543
   467      1   42.1252174120   15.1448640935   30.4610119112
   468      1   42.1252174120   15.1448640935   35.5378455883
   469      1   42.1252174120   15.1448640935   40.6146812453
   470      1   42.1252174120   15.1448640935   45.6915168515
   471      1   42.1252174120   25.2414398193    0.0000000000
   472      1   42.1252174120   25.2414398193    5.0768351493
   473      1   42.1252174120   25.2414398193   10.1536702986
   474      1   42.1252174120   25.2414398193   15.2305059556
   475      1   42.1252174120   25.2414398193   20.3073405973
   476      1   42.1252174120   25.2414398193   25.3841762543
   477      1   42.1252174120   25.2414398193   30.4610119112
   478      1   42.1252174120   25.2414398193   35.5378455883
   479      1   42.1252174120   25.2414398193   40.6146812453
   480      1   42.1252174120   25.2414398193   45.6915168515